+ 0.5 0 1 cbr 500 ------- 0 0.0 1.0 0 0
- 0.5 0 1 cbr 500 ------- 0 0.0 1.0 0 0
+ 0.502502 0 1 cbr 500 ------- 0 0.0 1.0 1 1
- 0.504 0 1 cbr 500 ------- 0 0.0 1.0 1 1
+ 0.507781 0 1 cbr 500 ------- 0 0.0 1.0 2 2
- 0.508 0 1 cbr 500 ------- 0 0.0 1.0 2 2
+ 0.510352 0 1 cbr 500 ------- 0 0.0 1.0 3 3
- 0.512 0 1 cbr 500 ------- 0 0.0 1.0 3 3
+ 0.513293 0 1 cbr 500 ------- 0 0.0 1.0 4 4
r 0.514 0 1 cbr 500 ------- 0 0.0 1.0 0 0
- 0.516 0 1 cbr 500 ------- 0 0.0 1.0 4 4
+ 0.517999 0 1 cbr 500 ------- 0 0.0 1.0 5 5
r 0.518 0 1 cbr 500 ------- 0 0.0 1.0 1 1
- 0.52 0 1 cbr 500 ------- 0 0.0 1.0 5 5
r 0.522 0 1 cbr 500 ------- 0 0.0 1.0 2 2
+ 0.524494 0 1 cbr 500 ------- 0 0.0 1.0 6 6
- 0.524494 0 1 cbr 500 ------- 0 0.0 1.0 6 6
r 0.526 0 1 cbr 500 ------- 0 0.0 1.0 3 3
+ 0.528559 0 1 cbr 500 ------- 0 0.0 1.0 7 7
- 0.528559 0 1 cbr 500 ------- 0 0.0 1.0 7 7
r 0.53 0 1 cbr 500 ------- 0 0.0 1.0 4 4
r 0.534 0 1 cbr 500 ------- 0 0.0 1.0 5 5
+ 0.535142 0 1 cbr 500 ------- 0 0.0 1.0 8 8
- 0.535142 0 1 cbr 500 ------- 0 0.0 1.0 8 8
r 0.538494 0 1 cbr 500 ------- 0 0.0 1.0 6 6
+ 0.538815 0 1 cbr 500 ------- 0 0.0 1.0 9 9
- 0.539142 0 1 cbr 500 ------- 0 0.0 1.0 9 9
r 0.542559 0 1 cbr 500 ------- 0 0.0 1.0 7 7
+ 0.544509 0 1 cbr 500 ------- 0 0.0 1.0 10 10
- 0.544509 0 1 cbr 500 ------- 0 0.0 1.0 10 10
+ 0.548554 0 1 cbr 500 ------- 0 0.0 1.0 11 11
- 0.548554 0 1 cbr 500 ------- 0 0.0 1.0 11 11
r 0.549142 0 1 cbr 500 ------- 0 0.0 1.0 8 8
r 0.553142 0 1 cbr 500 ------- 0 0.0 1.0 9 9
+ 0.555236 0 1 cbr 500 ------- 0 0.0 1.0 12 12
- 0.555236 0 1 cbr 500 ------- 0 0.0 1.0 12 12
r 0.558509 0 1 cbr 500 ------- 0 0.0 1.0 10 10
+ 0.558557 0 1 cbr 500 ------- 0 0.0 1.0 13 13
- 0.559236 0 1 cbr 500 ------- 0 0.0 1.0 13 13
+ 0.561271 0 1 cbr 500 ------- 0 0.0 1.0 14 14
r 0.562554 0 1 cbr 500 ------- 0 0.0 1.0 11 11
- 0.563236 0 1 cbr 500 ------- 0 0.0 1.0 14 14
+ 0.566971 0 1 cbr 500 ------- 0 0.0 1.0 15 15
- 0.567236 0 1 cbr 500 ------- 0 0.0 1.0 15 15
r 0.569236 0 1 cbr 500 ------- 0 0.0 1.0 12 12
+ 0.57004 0 1 cbr 500 ------- 0 0.0 1.0 16 16
- 0.571236 0 1 cbr 500 ------- 0 0.0 1.0 16 16
r 0.573236 0 1 cbr 500 ------- 0 0.0 1.0 13 13
+ 0.576839 0 1 cbr 500 ------- 0 0.0 1.0 17 17
- 0.576839 0 1 cbr 500 ------- 0 0.0 1.0 17 17
r 0.577236 0 1 cbr 500 ------- 0 0.0 1.0 14 14
r 0.581236 0 1 cbr 500 ------- 0 0.0 1.0 15 15
+ 0.581457 0 1 cbr 500 ------- 0 0.0 1.0 18 18
- 0.581457 0 1 cbr 500 ------- 0 0.0 1.0 18 18
+ 0.584831 0 1 cbr 500 ------- 0 0.0 1.0 19 19
r 0.585236 0 1 cbr 500 ------- 0 0.0 1.0 16 16
- 0.585457 0 1 cbr 500 ------- 0 0.0 1.0 19 19
+ 0.587802 0 1 cbr 500 ------- 0 0.0 1.0 20 20
- 0.589457 0 1 cbr 500 ------- 0 0.0 1.0 20 20
r 0.590839 0 1 cbr 500 ------- 0 0.0 1.0 17 17
+ 0.594337 0 1 cbr 500 ------- 0 0.0 1.0 21 21
- 0.594337 0 1 cbr 500 ------- 0 0.0 1.0 21 21
r 0.595457 0 1 cbr 500 ------- 0 0.0 1.0 18 18
+ 0.59858 0 1 cbr 500 ------- 0 0.0 1.0 22 22
- 0.59858 0 1 cbr 500 ------- 0 0.0 1.0 22 22
r 0.599457 0 1 cbr 500 ------- 0 0.0 1.0 19 19
+ 0.602371 0 1 cbr 500 ------- 0 0.0 1.0 23 23
- 0.60258 0 1 cbr 500 ------- 0 0.0 1.0 23 23
r 0.603457 0 1 cbr 500 ------- 0 0.0 1.0 20 20
+ 0.606914 0 1 cbr 500 ------- 0 0.0 1.0 24 24
- 0.606914 0 1 cbr 500 ------- 0 0.0 1.0 24 24
r 0.608337 0 1 cbr 500 ------- 0 0.0 1.0 21 21
+ 0.612008 0 1 cbr 500 ------- 0 0.0 1.0 25 25
- 0.612008 0 1 cbr 500 ------- 0 0.0 1.0 25 25
r 0.61258 0 1 cbr 500 ------- 0 0.0 1.0 22 22
r 0.61658 0 1 cbr 500 ------- 0 0.0 1.0 23 23
+ 0.616838 0 1 cbr 500 ------- 0 0.0 1.0 26 26
- 0.616838 0 1 cbr 500 ------- 0 0.0 1.0 26 26
r 0.620914 0 1 cbr 500 ------- 0 0.0 1.0 24 24
+ 0.6228 0 1 cbr 500 ------- 0 0.0 1.0 27 27
- 0.6228 0 1 cbr 500 ------- 0 0.0 1.0 27 27
r 0.626008 0 1 cbr 500 ------- 0 0.0 1.0 25 25
+ 0.62961 0 1 cbr 500 ------- 0 0.0 1.0 28 28
- 0.62961 0 1 cbr 500 ------- 0 0.0 1.0 28 28
r 0.630838 0 1 cbr 500 ------- 0 0.0 1.0 26 26
+ 0.636309 0 1 cbr 500 ------- 0 0.0 1.0 29 29
- 0.636309 0 1 cbr 500 ------- 0 0.0 1.0 29 29
r 0.6368 0 1 cbr 500 ------- 0 0.0 1.0 27 27
+ 0.639895 0 1 cbr 500 ------- 0 0.0 1.0 30 30
- 0.640309 0 1 cbr 500 ------- 0 0.0 1.0 30 30
+ 0.643601 0 1 cbr 500 ------- 0 0.0 1.0 31 31
r 0.64361 0 1 cbr 500 ------- 0 0.0 1.0 28 28
- 0.644309 0 1 cbr 500 ------- 0 0.0 1.0 31 31
r 0.650309 0 1 cbr 500 ------- 0 0.0 1.0 29 29
+ 0.650357 0 1 cbr 500 ------- 0 0.0 1.0 32 32
- 0.650357 0 1 cbr 500 ------- 0 0.0 1.0 32 32
r 0.654309 0 1 cbr 500 ------- 0 0.0 1.0 30 30
+ 0.656243 0 1 cbr 500 ------- 0 0.0 1.0 33 33
- 0.656243 0 1 cbr 500 ------- 0 0.0 1.0 33 33
r 0.658309 0 1 cbr 500 ------- 0 0.0 1.0 31 31
+ 0.662555 0 1 cbr 500 ------- 0 0.0 1.0 34 34
- 0.662555 0 1 cbr 500 ------- 0 0.0 1.0 34 34
r 0.664357 0 1 cbr 500 ------- 0 0.0 1.0 32 32
+ 0.669579 0 1 cbr 500 ------- 0 0.0 1.0 35 35
- 0.669579 0 1 cbr 500 ------- 0 0.0 1.0 35 35
r 0.670243 0 1 cbr 500 ------- 0 0.0 1.0 33 33
+ 0.674107 0 1 cbr 500 ------- 0 0.0 1.0 36 36
- 0.674107 0 1 cbr 500 ------- 0 0.0 1.0 36 36
r 0.676555 0 1 cbr 500 ------- 0 0.0 1.0 34 34
+ 0.677153 0 1 cbr 500 ------- 0 0.0 1.0 37 37
- 0.678107 0 1 cbr 500 ------- 0 0.0 1.0 37 37
+ 0.681674 0 1 cbr 500 ------- 0 0.0 1.0 38 38
- 0.682107 0 1 cbr 500 ------- 0 0.0 1.0 38 38
r 0.683579 0 1 cbr 500 ------- 0 0.0 1.0 35 35
+ 0.685111 0 1 cbr 500 ------- 0 0.0 1.0 39 39
- 0.686107 0 1 cbr 500 ------- 0 0.0 1.0 39 39
r 0.688107 0 1 cbr 500 ------- 0 0.0 1.0 36 36
+ 0.692048 0 1 cbr 500 ------- 0 0.0 1.0 40 40
- 0.692048 0 1 cbr 500 ------- 0 0.0 1.0 40 40
r 0.692107 0 1 cbr 500 ------- 0 0.0 1.0 37 37
r 0.696107 0 1 cbr 500 ------- 0 0.0 1.0 38 38
+ 0.699279 0 1 cbr 500 ------- 0 0.0 1.0 41 41
- 0.699279 0 1 cbr 500 ------- 0 0.0 1.0 41 41
r 0.700107 0 1 cbr 500 ------- 0 0.0 1.0 39 39
r 0.706048 0 1 cbr 500 ------- 0 0.0 1.0 40 40
+ 0.706236 0 1 cbr 500 ------- 0 0.0 1.0 42 42
- 0.706236 0 1 cbr 500 ------- 0 0.0 1.0 42 42
+ 0.709296 0 1 cbr 500 ------- 0 0.0 1.0 43 43
- 0.710236 0 1 cbr 500 ------- 0 0.0 1.0 43 43
+ 0.712088 0 1 cbr 500 ------- 0 0.0 1.0 44 44
r 0.713279 0 1 cbr 500 ------- 0 0.0 1.0 41 41
- 0.714236 0 1 cbr 500 ------- 0 0.0 1.0 44 44
+ 0.714642 0 1 cbr 500 ------- 0 0.0 1.0 45 45
- 0.718236 0 1 cbr 500 ------- 0 0.0 1.0 45 45
+ 0.720117 0 1 cbr 500 ------- 0 0.0 1.0 46 46
r 0.720236 0 1 cbr 500 ------- 0 0.0 1.0 42 42
- 0.722236 0 1 cbr 500 ------- 0 0.0 1.0 46 46
r 0.724236 0 1 cbr 500 ------- 0 0.0 1.0 43 43
+ 0.724296 0 1 cbr 500 ------- 0 0.0 1.0 47 47
- 0.726236 0 1 cbr 500 ------- 0 0.0 1.0 47 47
+ 0.727411 0 1 cbr 500 ------- 0 0.0 1.0 48 48
r 0.728236 0 1 cbr 500 ------- 0 0.0 1.0 44 44
- 0.730236 0 1 cbr 500 ------- 0 0.0 1.0 48 48
r 0.732236 0 1 cbr 500 ------- 0 0.0 1.0 45 45
+ 0.733254 0 1 cbr 500 ------- 0 0.0 1.0 49 49
- 0.734236 0 1 cbr 500 ------- 0 0.0 1.0 49 49
r 0.736236 0 1 cbr 500 ------- 0 0.0 1.0 46 46
+ 0.737039 0 1 cbr 500 ------- 0 0.0 1.0 50 50
- 0.738236 0 1 cbr 500 ------- 0 0.0 1.0 50 50
r 0.740236 0 1 cbr 500 ------- 0 0.0 1.0 47 47
+ 0.743033 0 1 cbr 500 ------- 0 0.0 1.0 51 51
- 0.743033 0 1 cbr 500 ------- 0 0.0 1.0 51 51
r 0.744236 0 1 cbr 500 ------- 0 0.0 1.0 48 48
r 0.748236 0 1 cbr 500 ------- 0 0.0 1.0 49 49
+ 0.748257 0 1 cbr 500 ------- 0 0.0 1.0 52 52
- 0.748257 0 1 cbr 500 ------- 0 0.0 1.0 52 52
r 0.752236 0 1 cbr 500 ------- 0 0.0 1.0 50 50
+ 0.75514 0 1 cbr 500 ------- 0 0.0 1.0 53 53
- 0.75514 0 1 cbr 500 ------- 0 0.0 1.0 53 53
r 0.757033 0 1 cbr 500 ------- 0 0.0 1.0 51 51
+ 0.758949 0 1 cbr 500 ------- 0 0.0 1.0 54 54
- 0.75914 0 1 cbr 500 ------- 0 0.0 1.0 54 54
r 0.762257 0 1 cbr 500 ------- 0 0.0 1.0 52 52
+ 0.764223 0 1 cbr 500 ------- 0 0.0 1.0 55 55
- 0.764223 0 1 cbr 500 ------- 0 0.0 1.0 55 55
+ 0.768852 0 1 cbr 500 ------- 0 0.0 1.0 56 56
- 0.768852 0 1 cbr 500 ------- 0 0.0 1.0 56 56
r 0.76914 0 1 cbr 500 ------- 0 0.0 1.0 53 53
+ 0.77149 0 1 cbr 500 ------- 0 0.0 1.0 57 57
- 0.772852 0 1 cbr 500 ------- 0 0.0 1.0 57 57
r 0.77314 0 1 cbr 500 ------- 0 0.0 1.0 54 54
+ 0.775626 0 1 cbr 500 ------- 0 0.0 1.0 58 58
- 0.776852 0 1 cbr 500 ------- 0 0.0 1.0 58 58
r 0.778223 0 1 cbr 500 ------- 0 0.0 1.0 55 55
+ 0.779057 0 1 cbr 500 ------- 0 0.0 1.0 59 59
- 0.780852 0 1 cbr 500 ------- 0 0.0 1.0 59 59
r 0.782852 0 1 cbr 500 ------- 0 0.0 1.0 56 56
+ 0.785482 0 1 cbr 500 ------- 0 0.0 1.0 60 60
- 0.785482 0 1 cbr 500 ------- 0 0.0 1.0 60 60
r 0.786852 0 1 cbr 500 ------- 0 0.0 1.0 57 57
r 0.790852 0 1 cbr 500 ------- 0 0.0 1.0 58 58
+ 0.792716 0 1 cbr 500 ------- 0 0.0 1.0 61 61
- 0.792716 0 1 cbr 500 ------- 0 0.0 1.0 61 61
r 0.794852 0 1 cbr 500 ------- 0 0.0 1.0 59 59
+ 0.79908 0 1 cbr 500 ------- 0 0.0 1.0 62 62
- 0.79908 0 1 cbr 500 ------- 0 0.0 1.0 62 62
r 0.799482 0 1 cbr 500 ------- 0 0.0 1.0 60 60
+ 0.802613 0 1 cbr 500 ------- 0 0.0 1.0 63 63
- 0.80308 0 1 cbr 500 ------- 0 0.0 1.0 63 63
r 0.806716 0 1 cbr 500 ------- 0 0.0 1.0 61 61
+ 0.808588 0 1 cbr 500 ------- 0 0.0 1.0 64 64
- 0.808588 0 1 cbr 500 ------- 0 0.0 1.0 64 64
+ 0.811982 0 1 cbr 500 ------- 0 0.0 1.0 65 65
- 0.812588 0 1 cbr 500 ------- 0 0.0 1.0 65 65
r 0.81308 0 1 cbr 500 ------- 0 0.0 1.0 62 62
r 0.81708 0 1 cbr 500 ------- 0 0.0 1.0 63 63
+ 0.819362 0 1 cbr 500 ------- 0 0.0 1.0 66 66
- 0.819362 0 1 cbr 500 ------- 0 0.0 1.0 66 66
+ 0.822319 0 1 cbr 500 ------- 0 0.0 1.0 67 67
r 0.822588 0 1 cbr 500 ------- 0 0.0 1.0 64 64
- 0.823362 0 1 cbr 500 ------- 0 0.0 1.0 67 67
r 0.826588 0 1 cbr 500 ------- 0 0.0 1.0 65 65
+ 0.827277 0 1 cbr 500 ------- 0 0.0 1.0 68 68
- 0.827362 0 1 cbr 500 ------- 0 0.0 1.0 68 68
+ 0.830028 0 1 cbr 500 ------- 0 0.0 1.0 69 69
- 0.831362 0 1 cbr 500 ------- 0 0.0 1.0 69 69
r 0.833362 0 1 cbr 500 ------- 0 0.0 1.0 66 66
+ 0.836853 0 1 cbr 500 ------- 0 0.0 1.0 70 70
- 0.836853 0 1 cbr 500 ------- 0 0.0 1.0 70 70
r 0.837362 0 1 cbr 500 ------- 0 0.0 1.0 67 67
r 0.841362 0 1 cbr 500 ------- 0 0.0 1.0 68 68
+ 0.842018 0 1 cbr 500 ------- 0 0.0 1.0 71 71
- 0.842018 0 1 cbr 500 ------- 0 0.0 1.0 71 71
r 0.845362 0 1 cbr 500 ------- 0 0.0 1.0 69 69
+ 0.848193 0 1 cbr 500 ------- 0 0.0 1.0 72 72
- 0.848193 0 1 cbr 500 ------- 0 0.0 1.0 72 72
r 0.850853 0 1 cbr 500 ------- 0 0.0 1.0 70 70
+ 0.852799 0 1 cbr 500 ------- 0 0.0 1.0 73 73
- 0.852799 0 1 cbr 500 ------- 0 0.0 1.0 73 73
+ 0.85574 0 1 cbr 500 ------- 0 0.0 1.0 74 74
r 0.856018 0 1 cbr 500 ------- 0 0.0 1.0 71 71
- 0.856799 0 1 cbr 500 ------- 0 0.0 1.0 74 74
r 0.862193 0 1 cbr 500 ------- 0 0.0 1.0 72 72
+ 0.862312 0 1 cbr 500 ------- 0 0.0 1.0 75 75
- 0.862312 0 1 cbr 500 ------- 0 0.0 1.0 75 75
r 0.866799 0 1 cbr 500 ------- 0 0.0 1.0 73 73
+ 0.869327 0 1 cbr 500 ------- 0 0.0 1.0 76 76
- 0.869327 0 1 cbr 500 ------- 0 0.0 1.0 76 76
r 0.870799 0 1 cbr 500 ------- 0 0.0 1.0 74 74
+ 0.875467 0 1 cbr 500 ------- 0 0.0 1.0 77 77
- 0.875467 0 1 cbr 500 ------- 0 0.0 1.0 77 77
r 0.876312 0 1 cbr 500 ------- 0 0.0 1.0 75 75
+ 0.88234 0 1 cbr 500 ------- 0 0.0 1.0 78 78
- 0.88234 0 1 cbr 500 ------- 0 0.0 1.0 78 78
r 0.883327 0 1 cbr 500 ------- 0 0.0 1.0 76 76
+ 0.887771 0 1 cbr 500 ------- 0 0.0 1.0 79 79
- 0.887771 0 1 cbr 500 ------- 0 0.0 1.0 79 79
r 0.889467 0 1 cbr 500 ------- 0 0.0 1.0 77 77
+ 0.89395 0 1 cbr 500 ------- 0 0.0 1.0 80 80
- 0.89395 0 1 cbr 500 ------- 0 0.0 1.0 80 80
r 0.89634 0 1 cbr 500 ------- 0 0.0 1.0 78 78
+ 0.90046 0 1 cbr 500 ------- 0 0.0 1.0 81 81
- 0.90046 0 1 cbr 500 ------- 0 0.0 1.0 81 81
r 0.901771 0 1 cbr 500 ------- 0 0.0 1.0 79 79
+ 0.90474 0 1 cbr 500 ------- 0 0.0 1.0 82 82
- 0.90474 0 1 cbr 500 ------- 0 0.0 1.0 82 82
r 0.90795 0 1 cbr 500 ------- 0 0.0 1.0 80 80
+ 0.910032 0 1 cbr 500 ------- 0 0.0 1.0 83 83
- 0.910032 0 1 cbr 500 ------- 0 0.0 1.0 83 83
r 0.91446 0 1 cbr 500 ------- 0 0.0 1.0 81 81
+ 0.91661 0 1 cbr 500 ------- 0 0.0 1.0 84 84
- 0.91661 0 1 cbr 500 ------- 0 0.0 1.0 84 84
r 0.91874 0 1 cbr 500 ------- 0 0.0 1.0 82 82
+ 0.923029 0 1 cbr 500 ------- 0 0.0 1.0 85 85
- 0.923029 0 1 cbr 500 ------- 0 0.0 1.0 85 85
r 0.924032 0 1 cbr 500 ------- 0 0.0 1.0 83 83
+ 0.928847 0 1 cbr 500 ------- 0 0.0 1.0 86 86
- 0.928847 0 1 cbr 500 ------- 0 0.0 1.0 86 86
r 0.93061 0 1 cbr 500 ------- 0 0.0 1.0 84 84
+ 0.932097 0 1 cbr 500 ------- 0 0.0 1.0 87 87
- 0.932847 0 1 cbr 500 ------- 0 0.0 1.0 87 87
+ 0.936628 0 1 cbr 500 ------- 0 0.0 1.0 88 88
- 0.936847 0 1 cbr 500 ------- 0 0.0 1.0 88 88
r 0.937029 0 1 cbr 500 ------- 0 0.0 1.0 85 85
+ 0.941859 0 1 cbr 500 ------- 0 0.0 1.0 89 89
- 0.941859 0 1 cbr 500 ------- 0 0.0 1.0 89 89
r 0.942847 0 1 cbr 500 ------- 0 0.0 1.0 86 86
+ 0.946227 0 1 cbr 500 ------- 0 0.0 1.0 90 90
- 0.946227 0 1 cbr 500 ------- 0 0.0 1.0 90 90
r 0.946847 0 1 cbr 500 ------- 0 0.0 1.0 87 87
+ 0.948728 0 1 cbr 500 ------- 0 0.0 1.0 91 91
- 0.950227 0 1 cbr 500 ------- 0 0.0 1.0 91 91
r 0.950847 0 1 cbr 500 ------- 0 0.0 1.0 88 88
+ 0.951645 0 1 cbr 500 ------- 0 0.0 1.0 92 92
- 0.954227 0 1 cbr 500 ------- 0 0.0 1.0 92 92
+ 0.955806 0 1 cbr 500 ------- 0 0.0 1.0 93 93
r 0.955859 0 1 cbr 500 ------- 0 0.0 1.0 89 89
- 0.958227 0 1 cbr 500 ------- 0 0.0 1.0 93 93
r 0.960227 0 1 cbr 500 ------- 0 0.0 1.0 90 90
+ 0.961785 0 1 cbr 500 ------- 0 0.0 1.0 94 94
- 0.962227 0 1 cbr 500 ------- 0 0.0 1.0 94 94
r 0.964227 0 1 cbr 500 ------- 0 0.0 1.0 91 91
r 0.968227 0 1 cbr 500 ------- 0 0.0 1.0 92 92
+ 0.968844 0 1 cbr 500 ------- 0 0.0 1.0 95 95
- 0.968844 0 1 cbr 500 ------- 0 0.0 1.0 95 95
+ 0.971508 0 1 cbr 500 ------- 0 0.0 1.0 96 96
r 0.972227 0 1 cbr 500 ------- 0 0.0 1.0 93 93
- 0.972844 0 1 cbr 500 ------- 0 0.0 1.0 96 96
+ 0.975835 0 1 cbr 500 ------- 0 0.0 1.0 97 97
r 0.976227 0 1 cbr 500 ------- 0 0.0 1.0 94 94
- 0.976844 0 1 cbr 500 ------- 0 0.0 1.0 97 97
+ 0.979859 0 1 cbr 500 ------- 0 0.0 1.0 98 98
- 0.980844 0 1 cbr 500 ------- 0 0.0 1.0 98 98
+ 0.982376 0 1 cbr 500 ------- 0 0.0 1.0 99 99
r 0.982844 0 1 cbr 500 ------- 0 0.0 1.0 95 95
- 0.984844 0 1 cbr 500 ------- 0 0.0 1.0 99 99
+ 0.986485 0 1 cbr 500 ------- 0 0.0 1.0 100 100
r 0.986844 0 1 cbr 500 ------- 0 0.0 1.0 96 96
- 0.988844 0 1 cbr 500 ------- 0 0.0 1.0 100 100
r 0.990844 0 1 cbr 500 ------- 0 0.0 1.0 97 97
+ 0.993391 0 1 cbr 500 ------- 0 0.0 1.0 101 101
- 0.993391 0 1 cbr 500 ------- 0 0.0 1.0 101 101
r 0.994844 0 1 cbr 500 ------- 0 0.0 1.0 98 98
r 0.998844 0 1 cbr 500 ------- 0 0.0 1.0 99 99
+ 1.000291 0 1 cbr 500 ------- 0 0.0 1.0 102 102
- 1.000291 0 1 cbr 500 ------- 0 0.0 1.0 102 102
r 1.002844 0 1 cbr 500 ------- 0 0.0 1.0 100 100
+ 1.00682 0 1 cbr 500 ------- 0 0.0 1.0 103 103
- 1.00682 0 1 cbr 500 ------- 0 0.0 1.0 103 103
r 1.007391 0 1 cbr 500 ------- 0 0.0 1.0 101 101
+ 1.010176 0 1 cbr 500 ------- 0 0.0 1.0 104 104
- 1.01082 0 1 cbr 500 ------- 0 0.0 1.0 104 104
+ 1.012836 0 1 cbr 500 ------- 0 0.0 1.0 105 105
r 1.014291 0 1 cbr 500 ------- 0 0.0 1.0 102 102
- 1.01482 0 1 cbr 500 ------- 0 0.0 1.0 105 105
+ 1.019112 0 1 cbr 500 ------- 0 0.0 1.0 106 106
- 1.019112 0 1 cbr 500 ------- 0 0.0 1.0 106 106
r 1.02082 0 1 cbr 500 ------- 0 0.0 1.0 103 103
+ 1.024689 0 1 cbr 500 ------- 0 0.0 1.0 107 107
- 1.024689 0 1 cbr 500 ------- 0 0.0 1.0 107 107
r 1.02482 0 1 cbr 500 ------- 0 0.0 1.0 104 104
r 1.02882 0 1 cbr 500 ------- 0 0.0 1.0 105 105
+ 1.031137 0 1 cbr 500 ------- 0 0.0 1.0 108 108
- 1.031137 0 1 cbr 500 ------- 0 0.0 1.0 108 108
r 1.033112 0 1 cbr 500 ------- 0 0.0 1.0 106 106
+ 1.036241 0 1 cbr 500 ------- 0 0.0 1.0 109 109
- 1.036241 0 1 cbr 500 ------- 0 0.0 1.0 109 109
r 1.038689 0 1 cbr 500 ------- 0 0.0 1.0 107 107
+ 1.040997 0 1 cbr 500 ------- 0 0.0 1.0 110 110
- 1.040997 0 1 cbr 500 ------- 0 0.0 1.0 110 110
+ 1.044535 0 1 cbr 500 ------- 0 0.0 1.0 111 111
- 1.044997 0 1 cbr 500 ------- 0 0.0 1.0 111 111
r 1.045137 0 1 cbr 500 ------- 0 0.0 1.0 108 108
+ 1.047115 0 1 cbr 500 ------- 0 0.0 1.0 112 112
- 1.048997 0 1 cbr 500 ------- 0 0.0 1.0 112 112
r 1.050241 0 1 cbr 500 ------- 0 0.0 1.0 109 109
+ 1.051815 0 1 cbr 500 ------- 0 0.0 1.0 113 113
- 1.052997 0 1 cbr 500 ------- 0 0.0 1.0 113 113
r 1.054997 0 1 cbr 500 ------- 0 0.0 1.0 110 110
+ 1.056501 0 1 cbr 500 ------- 0 0.0 1.0 114 114
- 1.056997 0 1 cbr 500 ------- 0 0.0 1.0 114 114
r 1.058997 0 1 cbr 500 ------- 0 0.0 1.0 111 111
+ 1.060657 0 1 cbr 500 ------- 0 0.0 1.0 115 115
- 1.060997 0 1 cbr 500 ------- 0 0.0 1.0 115 115
r 1.062997 0 1 cbr 500 ------- 0 0.0 1.0 112 112
+ 1.063753 0 1 cbr 500 ------- 0 0.0 1.0 116 116
- 1.064997 0 1 cbr 500 ------- 0 0.0 1.0 116 116
r 1.066997 0 1 cbr 500 ------- 0 0.0 1.0 113 113
+ 1.07075 0 1 cbr 500 ------- 0 0.0 1.0 117 117
- 1.07075 0 1 cbr 500 ------- 0 0.0 1.0 117 117
r 1.070997 0 1 cbr 500 ------- 0 0.0 1.0 114 114
+ 1.074321 0 1 cbr 500 ------- 0 0.0 1.0 118 118
- 1.07475 0 1 cbr 500 ------- 0 0.0 1.0 118 118
r 1.074997 0 1 cbr 500 ------- 0 0.0 1.0 115 115
+ 1.078973 0 1 cbr 500 ------- 0 0.0 1.0 119 119
- 1.078973 0 1 cbr 500 ------- 0 0.0 1.0 119 119
r 1.078997 0 1 cbr 500 ------- 0 0.0 1.0 116 116
+ 1.083587 0 1 cbr 500 ------- 0 0.0 1.0 120 120
- 1.083587 0 1 cbr 500 ------- 0 0.0 1.0 120 120
r 1.08475 0 1 cbr 500 ------- 0 0.0 1.0 117 117
+ 1.088125 0 1 cbr 500 ------- 0 0.0 1.0 121 121
- 1.088125 0 1 cbr 500 ------- 0 0.0 1.0 121 121
r 1.08875 0 1 cbr 500 ------- 0 0.0 1.0 118 118
r 1.092973 0 1 cbr 500 ------- 0 0.0 1.0 119 119
+ 1.094303 0 1 cbr 500 ------- 0 0.0 1.0 122 122
- 1.094303 0 1 cbr 500 ------- 0 0.0 1.0 122 122
r 1.097587 0 1 cbr 500 ------- 0 0.0 1.0 120 120
+ 1.099227 0 1 cbr 500 ------- 0 0.0 1.0 123 123
- 1.099227 0 1 cbr 500 ------- 0 0.0 1.0 123 123
r 1.102125 0 1 cbr 500 ------- 0 0.0 1.0 121 121
+ 1.106211 0 1 cbr 500 ------- 0 0.0 1.0 124 124
- 1.106211 0 1 cbr 500 ------- 0 0.0 1.0 124 124
r 1.108303 0 1 cbr 500 ------- 0 0.0 1.0 122 122
+ 1.111825 0 1 cbr 500 ------- 0 0.0 1.0 125 125
- 1.111825 0 1 cbr 500 ------- 0 0.0 1.0 125 125
r 1.113227 0 1 cbr 500 ------- 0 0.0 1.0 123 123
+ 1.118579 0 1 cbr 500 ------- 0 0.0 1.0 126 126
- 1.118579 0 1 cbr 500 ------- 0 0.0 1.0 126 126
r 1.120211 0 1 cbr 500 ------- 0 0.0 1.0 124 124
+ 1.121872 0 1 cbr 500 ------- 0 0.0 1.0 127 127
- 1.122579 0 1 cbr 500 ------- 0 0.0 1.0 127 127
+ 1.12555 0 1 cbr 500 ------- 0 0.0 1.0 128 128
r 1.125825 0 1 cbr 500 ------- 0 0.0 1.0 125 125
- 1.126579 0 1 cbr 500 ------- 0 0.0 1.0 128 128
+ 1.128372 0 1 cbr 500 ------- 0 0.0 1.0 129 129
- 1.130579 0 1 cbr 500 ------- 0 0.0 1.0 129 129
+ 1.131756 0 1 cbr 500 ------- 0 0.0 1.0 130 130
r 1.132579 0 1 cbr 500 ------- 0 0.0 1.0 126 126
- 1.134579 0 1 cbr 500 ------- 0 0.0 1.0 130 130
r 1.136579 0 1 cbr 500 ------- 0 0.0 1.0 127 127
+ 1.138612 0 1 cbr 500 ------- 0 0.0 1.0 131 131
- 1.138612 0 1 cbr 500 ------- 0 0.0 1.0 131 131
r 1.140579 0 1 cbr 500 ------- 0 0.0 1.0 128 128
+ 1.14131 0 1 cbr 500 ------- 0 0.0 1.0 132 132
- 1.142612 0 1 cbr 500 ------- 0 0.0 1.0 132 132
r 1.144579 0 1 cbr 500 ------- 0 0.0 1.0 129 129
+ 1.146702 0 1 cbr 500 ------- 0 0.0 1.0 133 133
- 1.146702 0 1 cbr 500 ------- 0 0.0 1.0 133 133
r 1.148579 0 1 cbr 500 ------- 0 0.0 1.0 130 130
r 1.152612 0 1 cbr 500 ------- 0 0.0 1.0 131 131
+ 1.152733 0 1 cbr 500 ------- 0 0.0 1.0 134 134
- 1.152733 0 1 cbr 500 ------- 0 0.0 1.0 134 134
+ 1.156367 0 1 cbr 500 ------- 0 0.0 1.0 135 135
r 1.156612 0 1 cbr 500 ------- 0 0.0 1.0 132 132
- 1.156733 0 1 cbr 500 ------- 0 0.0 1.0 135 135
r 1.160702 0 1 cbr 500 ------- 0 0.0 1.0 133 133
+ 1.163019 0 1 cbr 500 ------- 0 0.0 1.0 136 136
- 1.163019 0 1 cbr 500 ------- 0 0.0 1.0 136 136
+ 1.165812 0 1 cbr 500 ------- 0 0.0 1.0 137 137
r 1.166733 0 1 cbr 500 ------- 0 0.0 1.0 134 134
- 1.167019 0 1 cbr 500 ------- 0 0.0 1.0 137 137
+ 1.170012 0 1 cbr 500 ------- 0 0.0 1.0 138 138
r 1.170733 0 1 cbr 500 ------- 0 0.0 1.0 135 135
- 1.171019 0 1 cbr 500 ------- 0 0.0 1.0 138 138
+ 1.176482 0 1 cbr 500 ------- 0 0.0 1.0 139 139
- 1.176482 0 1 cbr 500 ------- 0 0.0 1.0 139 139
r 1.177019 0 1 cbr 500 ------- 0 0.0 1.0 136 136
r 1.181019 0 1 cbr 500 ------- 0 0.0 1.0 137 137
+ 1.182168 0 1 cbr 500 ------- 0 0.0 1.0 140 140
- 1.182168 0 1 cbr 500 ------- 0 0.0 1.0 140 140
r 1.185019 0 1 cbr 500 ------- 0 0.0 1.0 138 138
+ 1.186835 0 1 cbr 500 ------- 0 0.0 1.0 141 141
- 1.186835 0 1 cbr 500 ------- 0 0.0 1.0 141 141
+ 1.19048 0 1 cbr 500 ------- 0 0.0 1.0 142 142
r 1.190482 0 1 cbr 500 ------- 0 0.0 1.0 139 139
- 1.190835 0 1 cbr 500 ------- 0 0.0 1.0 142 142
+ 1.195189 0 1 cbr 500 ------- 0 0.0 1.0 143 143
- 1.195189 0 1 cbr 500 ------- 0 0.0 1.0 143 143
r 1.196168 0 1 cbr 500 ------- 0 0.0 1.0 140 140
r 1.200835 0 1 cbr 500 ------- 0 0.0 1.0 141 141
+ 1.202388 0 1 cbr 500 ------- 0 0.0 1.0 144 144
- 1.202388 0 1 cbr 500 ------- 0 0.0 1.0 144 144
r 1.204835 0 1 cbr 500 ------- 0 0.0 1.0 142 142
+ 1.207188 0 1 cbr 500 ------- 0 0.0 1.0 145 145
- 1.207188 0 1 cbr 500 ------- 0 0.0 1.0 145 145
r 1.209189 0 1 cbr 500 ------- 0 0.0 1.0 143 143
+ 1.214195 0 1 cbr 500 ------- 0 0.0 1.0 146 146
- 1.214195 0 1 cbr 500 ------- 0 0.0 1.0 146 146
r 1.216388 0 1 cbr 500 ------- 0 0.0 1.0 144 144
r 1.221188 0 1 cbr 500 ------- 0 0.0 1.0 145 145
+ 1.221484 0 1 cbr 500 ------- 0 0.0 1.0 147 147
- 1.221484 0 1 cbr 500 ------- 0 0.0 1.0 147 147
r 1.228195 0 1 cbr 500 ------- 0 0.0 1.0 146 146
+ 1.228513 0 1 cbr 500 ------- 0 0.0 1.0 148 148
- 1.228513 0 1 cbr 500 ------- 0 0.0 1.0 148 148
+ 1.231771 0 1 cbr 500 ------- 0 0.0 1.0 149 149
- 1.232513 0 1 cbr 500 ------- 0 0.0 1.0 149 149
r 1.235484 0 1 cbr 500 ------- 0 0.0 1.0 147 147
+ 1.238997 0 1 cbr 500 ------- 0 0.0 1.0 150 150
- 1.238997 0 1 cbr 500 ------- 0 0.0 1.0 150 150
r 1.242513 0 1 cbr 500 ------- 0 0.0 1.0 148 148
+ 1.244198 0 1 cbr 500 ------- 0 0.0 1.0 151 151
- 1.244198 0 1 cbr 500 ------- 0 0.0 1.0 151 151
r 1.246513 0 1 cbr 500 ------- 0 0.0 1.0 149 149
+ 1.249375 0 1 cbr 500 ------- 0 0.0 1.0 152 152
- 1.249375 0 1 cbr 500 ------- 0 0.0 1.0 152 152
+ 1.252207 0 1 cbr 500 ------- 0 0.0 1.0 153 153
r 1.252997 0 1 cbr 500 ------- 0 0.0 1.0 150 150
- 1.253375 0 1 cbr 500 ------- 0 0.0 1.0 153 153
r 1.258198 0 1 cbr 500 ------- 0 0.0 1.0 151 151
+ 1.259566 0 1 cbr 500 ------- 0 0.0 1.0 154 154
- 1.259566 0 1 cbr 500 ------- 0 0.0 1.0 154 154
r 1.263375 0 1 cbr 500 ------- 0 0.0 1.0 152 152
+ 1.264656 0 1 cbr 500 ------- 0 0.0 1.0 155 155
- 1.264656 0 1 cbr 500 ------- 0 0.0 1.0 155 155
r 1.267375 0 1 cbr 500 ------- 0 0.0 1.0 153 153
+ 1.271561 0 1 cbr 500 ------- 0 0.0 1.0 156 156
- 1.271561 0 1 cbr 500 ------- 0 0.0 1.0 156 156
r 1.273566 0 1 cbr 500 ------- 0 0.0 1.0 154 154
+ 1.27771 0 1 cbr 500 ------- 0 0.0 1.0 157 157
- 1.27771 0 1 cbr 500 ------- 0 0.0 1.0 157 157
r 1.278656 0 1 cbr 500 ------- 0 0.0 1.0 155 155
+ 1.281524 0 1 cbr 500 ------- 0 0.0 1.0 158 158
- 1.28171 0 1 cbr 500 ------- 0 0.0 1.0 158 158
r 1.285561 0 1 cbr 500 ------- 0 0.0 1.0 156 156
+ 1.286422 0 1 cbr 500 ------- 0 0.0 1.0 159 159
- 1.286422 0 1 cbr 500 ------- 0 0.0 1.0 159 159
r 1.29171 0 1 cbr 500 ------- 0 0.0 1.0 157 157
+ 1.29267 0 1 cbr 500 ------- 0 0.0 1.0 160 160
- 1.29267 0 1 cbr 500 ------- 0 0.0 1.0 160 160
r 1.29571 0 1 cbr 500 ------- 0 0.0 1.0 158 158
+ 1.2962 0 1 cbr 500 ------- 0 0.0 1.0 161 161
- 1.29667 0 1 cbr 500 ------- 0 0.0 1.0 161 161
r 1.300422 0 1 cbr 500 ------- 0 0.0 1.0 159 159
+ 1.302077 0 1 cbr 500 ------- 0 0.0 1.0 162 162
- 1.302077 0 1 cbr 500 ------- 0 0.0 1.0 162 162
r 1.30667 0 1 cbr 500 ------- 0 0.0 1.0 160 160
+ 1.307863 0 1 cbr 500 ------- 0 0.0 1.0 163 163
- 1.307863 0 1 cbr 500 ------- 0 0.0 1.0 163 163
r 1.31067 0 1 cbr 500 ------- 0 0.0 1.0 161 161
+ 1.311172 0 1 cbr 500 ------- 0 0.0 1.0 164 164
- 1.311863 0 1 cbr 500 ------- 0 0.0 1.0 164 164
+ 1.314996 0 1 cbr 500 ------- 0 0.0 1.0 165 165
- 1.315863 0 1 cbr 500 ------- 0 0.0 1.0 165 165
r 1.316077 0 1 cbr 500 ------- 0 0.0 1.0 162 162
+ 1.319389 0 1 cbr 500 ------- 0 0.0 1.0 166 166
- 1.319863 0 1 cbr 500 ------- 0 0.0 1.0 166 166
r 1.321863 0 1 cbr 500 ------- 0 0.0 1.0 163 163
+ 1.324948 0 1 cbr 500 ------- 0 0.0 1.0 167 167
- 1.324948 0 1 cbr 500 ------- 0 0.0 1.0 167 167
r 1.325863 0 1 cbr 500 ------- 0 0.0 1.0 164 164
r 1.329863 0 1 cbr 500 ------- 0 0.0 1.0 165 165
+ 1.330725 0 1 cbr 500 ------- 0 0.0 1.0 168 168
- 1.330725 0 1 cbr 500 ------- 0 0.0 1.0 168 168
r 1.333863 0 1 cbr 500 ------- 0 0.0 1.0 166 166
+ 1.337498 0 1 cbr 500 ------- 0 0.0 1.0 169 169
- 1.337498 0 1 cbr 500 ------- 0 0.0 1.0 169 169
r 1.338948 0 1 cbr 500 ------- 0 0.0 1.0 167 167
+ 1.3414 0 1 cbr 500 ------- 0 0.0 1.0 170 170
- 1.341498 0 1 cbr 500 ------- 0 0.0 1.0 170 170
r 1.344725 0 1 cbr 500 ------- 0 0.0 1.0 168 168
+ 1.344732 0 1 cbr 500 ------- 0 0.0 1.0 171 171
- 1.345498 0 1 cbr 500 ------- 0 0.0 1.0 171 171
+ 1.348197 0 1 cbr 500 ------- 0 0.0 1.0 172 172
- 1.349498 0 1 cbr 500 ------- 0 0.0 1.0 172 172
+ 1.350905 0 1 cbr 500 ------- 0 0.0 1.0 173 173
r 1.351498 0 1 cbr 500 ------- 0 0.0 1.0 169 169
- 1.353498 0 1 cbr 500 ------- 0 0.0 1.0 173 173
+ 1.353792 0 1 cbr 500 ------- 0 0.0 1.0 174 174
r 1.355498 0 1 cbr 500 ------- 0 0.0 1.0 170 170
+ 1.356889 0 1 cbr 500 ------- 0 0.0 1.0 175 175
- 1.357498 0 1 cbr 500 ------- 0 0.0 1.0 174 174
r 1.359498 0 1 cbr 500 ------- 0 0.0 1.0 171 171
+ 1.359658 0 1 cbr 500 ------- 0 0.0 1.0 176 176
- 1.361498 0 1 cbr 500 ------- 0 0.0 1.0 175 175
r 1.363498 0 1 cbr 500 ------- 0 0.0 1.0 172 172
+ 1.363954 0 1 cbr 500 ------- 0 0.0 1.0 177 177
- 1.365498 0 1 cbr 500 ------- 0 0.0 1.0 176 176
r 1.367498 0 1 cbr 500 ------- 0 0.0 1.0 173 173
+ 1.367526 0 1 cbr 500 ------- 0 0.0 1.0 178 178
- 1.369498 0 1 cbr 500 ------- 0 0.0 1.0 177 177
+ 1.370302 0 1 cbr 500 ------- 0 0.0 1.0 179 179
r 1.371498 0 1 cbr 500 ------- 0 0.0 1.0 174 174
- 1.373498 0 1 cbr 500 ------- 0 0.0 1.0 178 178
r 1.375498 0 1 cbr 500 ------- 0 0.0 1.0 175 175
- 1.377498 0 1 cbr 500 ------- 0 0.0 1.0 179 179
+ 1.377572 0 1 cbr 500 ------- 0 0.0 1.0 180 180
r 1.379498 0 1 cbr 500 ------- 0 0.0 1.0 176 176
- 1.381498 0 1 cbr 500 ------- 0 0.0 1.0 180 180
r 1.383498 0 1 cbr 500 ------- 0 0.0 1.0 177 177
+ 1.384183 0 1 cbr 500 ------- 0 0.0 1.0 181 181
- 1.385498 0 1 cbr 500 ------- 0 0.0 1.0 181 181
r 1.387498 0 1 cbr 500 ------- 0 0.0 1.0 178 178
+ 1.390224 0 1 cbr 500 ------- 0 0.0 1.0 182 182
- 1.390224 0 1 cbr 500 ------- 0 0.0 1.0 182 182
r 1.391498 0 1 cbr 500 ------- 0 0.0 1.0 179 179
+ 1.394876 0 1 cbr 500 ------- 0 0.0 1.0 183 183
- 1.394876 0 1 cbr 500 ------- 0 0.0 1.0 183 183
r 1.395498 0 1 cbr 500 ------- 0 0.0 1.0 180 180
r 1.399498 0 1 cbr 500 ------- 0 0.0 1.0 181 181
+ 1.401526 0 1 cbr 500 ------- 0 0.0 1.0 184 184
- 1.401526 0 1 cbr 500 ------- 0 0.0 1.0 184 184
r 1.404224 0 1 cbr 500 ------- 0 0.0 1.0 182 182
+ 1.405991 0 1 cbr 500 ------- 0 0.0 1.0 185 185
- 1.405991 0 1 cbr 500 ------- 0 0.0 1.0 185 185
r 1.408876 0 1 cbr 500 ------- 0 0.0 1.0 183 183
+ 1.411208 0 1 cbr 500 ------- 0 0.0 1.0 186 186
- 1.411208 0 1 cbr 500 ------- 0 0.0 1.0 186 186
+ 1.414357 0 1 cbr 500 ------- 0 0.0 1.0 187 187
- 1.415208 0 1 cbr 500 ------- 0 0.0 1.0 187 187
r 1.415526 0 1 cbr 500 ------- 0 0.0 1.0 184 184
+ 1.419758 0 1 cbr 500 ------- 0 0.0 1.0 188 188
- 1.419758 0 1 cbr 500 ------- 0 0.0 1.0 188 188
r 1.419991 0 1 cbr 500 ------- 0 0.0 1.0 185 185
+ 1.424343 0 1 cbr 500 ------- 0 0.0 1.0 189 189
- 1.424343 0 1 cbr 500 ------- 0 0.0 1.0 189 189
r 1.425208 0 1 cbr 500 ------- 0 0.0 1.0 186 186
r 1.429208 0 1 cbr 500 ------- 0 0.0 1.0 187 187
+ 1.430978 0 1 cbr 500 ------- 0 0.0 1.0 190 190
- 1.430978 0 1 cbr 500 ------- 0 0.0 1.0 190 190
r 1.433758 0 1 cbr 500 ------- 0 0.0 1.0 188 188
+ 1.437507 0 1 cbr 500 ------- 0 0.0 1.0 191 191
- 1.437507 0 1 cbr 500 ------- 0 0.0 1.0 191 191
r 1.438343 0 1 cbr 500 ------- 0 0.0 1.0 189 189
+ 1.444294 0 1 cbr 500 ------- 0 0.0 1.0 192 192
- 1.444294 0 1 cbr 500 ------- 0 0.0 1.0 192 192
r 1.444978 0 1 cbr 500 ------- 0 0.0 1.0 190 190
+ 1.446812 0 1 cbr 500 ------- 0 0.0 1.0 193 193
- 1.448294 0 1 cbr 500 ------- 0 0.0 1.0 193 193
r 1.451507 0 1 cbr 500 ------- 0 0.0 1.0 191 191
+ 1.45328 0 1 cbr 500 ------- 0 0.0 1.0 194 194
- 1.45328 0 1 cbr 500 ------- 0 0.0 1.0 194 194
+ 1.45616 0 1 cbr 500 ------- 0 0.0 1.0 195 195
- 1.45728 0 1 cbr 500 ------- 0 0.0 1.0 195 195
r 1.458294 0 1 cbr 500 ------- 0 0.0 1.0 192 192
+ 1.459717 0 1 cbr 500 ------- 0 0.0 1.0 196 196
- 1.46128 0 1 cbr 500 ------- 0 0.0 1.0 196 196
r 1.462294 0 1 cbr 500 ------- 0 0.0 1.0 193 193
+ 1.466409 0 1 cbr 500 ------- 0 0.0 1.0 197 197
- 1.466409 0 1 cbr 500 ------- 0 0.0 1.0 197 197
r 1.46728 0 1 cbr 500 ------- 0 0.0 1.0 194 194
r 1.47128 0 1 cbr 500 ------- 0 0.0 1.0 195 195
+ 1.471295 0 1 cbr 500 ------- 0 0.0 1.0 198 198
- 1.471295 0 1 cbr 500 ------- 0 0.0 1.0 198 198
+ 1.474591 0 1 cbr 500 ------- 0 0.0 1.0 199 199
r 1.47528 0 1 cbr 500 ------- 0 0.0 1.0 196 196
- 1.475295 0 1 cbr 500 ------- 0 0.0 1.0 199 199
+ 1.478439 0 1 cbr 500 ------- 0 0.0 1.0 200 200
- 1.479295 0 1 cbr 500 ------- 0 0.0 1.0 200 200
r 1.480409 0 1 cbr 500 ------- 0 0.0 1.0 197 197
+ 1.481039 0 1 cbr 500 ------- 0 0.0 1.0 201 201
- 1.483295 0 1 cbr 500 ------- 0 0.0 1.0 201 201
r 1.485295 0 1 cbr 500 ------- 0 0.0 1.0 198 198
+ 1.48706 0 1 cbr 500 ------- 0 0.0 1.0 202 202
- 1.487295 0 1 cbr 500 ------- 0 0.0 1.0 202 202
r 1.489295 0 1 cbr 500 ------- 0 0.0 1.0 199 199
+ 1.491719 0 1 cbr 500 ------- 0 0.0 1.0 203 203
- 1.491719 0 1 cbr 500 ------- 0 0.0 1.0 203 203
r 1.493295 0 1 cbr 500 ------- 0 0.0 1.0 200 200
+ 1.496657 0 1 cbr 500 ------- 0 0.0 1.0 204 204
- 1.496657 0 1 cbr 500 ------- 0 0.0 1.0 204 204
r 1.497295 0 1 cbr 500 ------- 0 0.0 1.0 201 201
+ 1.500696 0 1 cbr 500 ------- 0 0.0 1.0 205 205
- 1.500696 0 1 cbr 500 ------- 0 0.0 1.0 205 205
r 1.501295 0 1 cbr 500 ------- 0 0.0 1.0 202 202
+ 1.503236 0 1 cbr 500 ------- 0 0.0 1.0 206 206
- 1.504696 0 1 cbr 500 ------- 0 0.0 1.0 206 206
r 1.505719 0 1 cbr 500 ------- 0 0.0 1.0 203 203
+ 1.509186 0 1 cbr 500 ------- 0 0.0 1.0 207 207
- 1.509186 0 1 cbr 500 ------- 0 0.0 1.0 207 207
r 1.510657 0 1 cbr 500 ------- 0 0.0 1.0 204 204
+ 1.513004 0 1 cbr 500 ------- 0 0.0 1.0 208 208
- 1.513186 0 1 cbr 500 ------- 0 0.0 1.0 208 208
r 1.514696 0 1 cbr 500 ------- 0 0.0 1.0 205 205
+ 1.51785 0 1 cbr 500 ------- 0 0.0 1.0 209 209
- 1.51785 0 1 cbr 500 ------- 0 0.0 1.0 209 209
r 1.518696 0 1 cbr 500 ------- 0 0.0 1.0 206 206
r 1.523186 0 1 cbr 500 ------- 0 0.0 1.0 207 207